<?xml version="1.0" ?> 
<!-- 
# vtk DataFile Version 3.0
#This file was generated by the deal.II library on 14:55:28 at 2023/6/29
-->
<VTKFile type="UnstructuredGrid" version="0.1" byte_order="LittleEndian">
<UnstructuredGrid>
<FieldData>
<DataArray type="Float32" Name="CYCLE" NumberOfTuples="1" format="ascii">1</DataArray>
<DataArray type="Float32" Name="TIME" NumberOfTuples="1" format="ascii">0.05</DataArray>
</FieldData>
<Piece NumberOfPoints="31608" NumberOfCells="14048" >
  <Points>
    <DataArray type="Float32" NumberOfComponents="3" format="ascii">
0 28 0
2 28 0
4 28 0
0 30 0
2 30 0
4 30 0
0 32 0
2 32 0
4 32 0
44 0 0
46 0 0
48 0 0
44 2 0
46 2 0
48 2 0
44 4 0
46 4 0
48 4 0
0 0 0
1 0 0
2 0 0
0 1 0
1 1 0
2 1 0
0 2 0
1 2 0
2 2 0
2 0 0
3 0 0
4 0 0
2 1 0
3 1 0
4 1 0
2 2 0
3 2 0
4 2 0
0 2 0
1 2 0
2 2 0
0 3 0
1 3 0
2 3 0
0 4 0
1 4 0
2 4 0
2 2 0
3 2 0
4 2 0
2 3 0
3 3 0
4 3 0
2 4 0
3 4 0
4 4 0
4 0 0
5 0 0
6 0 0
4 1 0
5 1 0
6 1 0
4 2 0
5 2 0
6 2 0
6 0 0
7 0 0
8 0 0
6 1 0
7 1 0
8 1 0
6 2 0
7 2 0
8 2 0
4 2 0
5 2 0
6 2 0
4 3 0
5 3 0
6 3 0
4 4 0
5 4 0
6 4 0
6 2 0
7 2 0
8 2 0
6 3 0
7 3 0
8 3 0
6 4 0
7 4 0
8 4 0
4 4 0
5 4 0
6 4 0
4 5 0
5 5 0
6 5 0
4 6 0
5 6 0
6 6 0
8 0 0
9 0 0
10 0 0
8 1 0
9 1 0
10 1 0
8 2 0
9 2 0
10 2 0
8 2 0
9 2 0
10 2 0
8 3 0
9 3 0
10 3 0
8 4 0
9 4 0
10 4 0
6 10 0
7 10 0
8 10 0
6 11 0
7 11 0
8 11 0
6 12 0
7 12 0
8 12 0
0 14 0
1 14 0
2 14 0
0 15 0
1 15 0
2 15 0
0 16 0
1 16 0
2 16 0
2 14 0
3 14 0
4 14 0
2 15 0
3 15 0
4 15 0
2 16 0
3 16 0
4 16 0
4 12 0
5 12 0
6 12 0
4 13 0
5 13 0
6 13 0
4 14 0
5 14 0
6 14 0
6 12 0
7 12 0
8 12 0
6 13 0
7 13 0
8 13 0
6 14 0
7 14 0
8 14 0
4 14 0
5 14 0
6 14 0
4 15 0
5 15 0
6 15 0
4 16 0
5 16 0
6 16 0
6 14 0
7 14 0
8 14 0
6 15 0
7 15 0
8 15 0
6 16 0
7 16 0
8 16 0
8 10 0
9 10 0
10 10 0
8 11 0
9 11 0
10 11 0
8 12 0
9 12 0
10 12 0
10 10 0
11 10 0
12 10 0
10 11 0
11 11 0
12 11 0
10 12 0
11 12 0
12 12 0
8 12 0
9 12 0
10 12 0
8 13 0
9 13 0
10 13 0
8 14 0
9 14 0
10 14 0
10 12 0
11 12 0
12 12 0
10 13 0
11 13 0
12 13 0
10 14 0
11 14 0
12 14 0
8 14 0
9 14 0
10 14 0
8 15 0
9 15 0
10 15 0
8 16 0
9 16 0
10 16 0
10 14 0
11 14 0
12 14 0
10 15 0
11 15 0
12 15 0
10 16 0
11 16 0
12 16 0
12 12 0
13 12 0
14 12 0
12 13 0
13 13 0
14 13 0
12 14 0
13 14 0
14 14 0
12 14 0
13 14 0
14 14 0
12 15 0
13 15 0
14 15 0
12 16 0
13 16 0
14 16 0
16 0 0
17 0 0
18 0 0
16 1 0
17 1 0
18 1 0
16 2 0
17 2 0
18 2 0
16 2 0
17 2 0
18 2 0
16 3 0
17 3 0
18 3 0
16 4 0
17 4 0
18 4 0
18 2 0
19 2 0
20 2 0
18 3 0
19 3 0
20 3 0
18 4 0
19 4 0
20 4 0
16 4 0
17 4 0
18 4 0
16 5 0
17 5 0
18 5 0
16 6 0
17 6 0
18 6 0
18 4 0
19 4 0
20 4 0
18 5 0
19 5 0
20 5 0
18 6 0
19 6 0
20 6 0
16 6 0
17 6 0
18 6 0
16 7 0
17 7 0
18 7 0
16 8 0
17 8 0
18 8 0
18 6 0
19 6 0
20 6 0
18 7 0
19 7 0
20 7 0
18 8 0
19 8 0
20 8 0
20 6 0
21 6 0
22 6 0
20 7 0
21 7 0
22 7 0
20 8 0
21 8 0
22 8 0
26 0 0
27 0 0
28 0 0
26 1 0
27 1 0
28 1 0
26 2 0
27 2 0
28 2 0
18 8 0
19 8 0
20 8 0
18 9 0
19 9 0
20 9 0
18 10 0
19 10 0
20 10 0
20 8 0
21 8 0
22 8 0
20 9 0
21 9 0
22 9 0
20 10 0
21 10 0
22 10 0
22 8 0
23 8 0
24 8 0
22 9 0
23 9 0
24 9 0
22 10 0
23 10 0
24 10 0
26 14 0
27 14 0
28 14 0
26 15 0
27 15 0
28 15 0
26 16 0
27 16 0
28 16 0
28 14 0
29 14 0
30 14 0
28 15 0
29 15 0
30 15 0
28 16 0
29 16 0
30 16 0
0 16 0
1 16 0
2 16 0
0 17 0
1 17 0
2 17 0
0 18 0
1 18 0
2 18 0
2 16 0
3 16 0
4 16 0
2 17 0
3 17 0
4 17 0
2 18 0
3 18 0
4 18 0
4 16 0
5 16 0
6 16 0
4 17 0
5 17 0
6 17 0
4 18 0
5 18 0
6 18 0
6 16 0
7 16 0
8 16 0
6 17 0
7 17 0
8 17 0
6 18 0
7 18 0
8 18 0
8 16 0
9 16 0
10 16 0
8 17 0
9 17 0
10 17 0
8 18 0
9 18 0
10 18 0
10 16 0
11 16 0
12 16 0
10 17 0
11 17 0
12 17 0
10 18 0
11 18 0
12 18 0
8 18 0
9 18 0
10 18 0
8 19 0
9 19 0
10 19 0
8 20 0
9 20 0
10 20 0
10 18 0
11 18 0
12 18 0
10 19 0
11 19 0
12 19 0
10 20 0
11 20 0
12 20 0
12 16 0
13 16 0
14 16 0
12 17 0
13 17 0
14 17 0
12 18 0
13 18 0
14 18 0
0 24 0
1 24 0
2 24 0
0 25 0
1 25 0
2 25 0
0 26 0
1 26 0
2 26 0
2 24 0
3 24 0
4 24 0
2 25 0
3 25 0
4 25 0
2 26 0
3 26 0
4 26 0
0 26 0
1 26 0
2 26 0
0 27 0
1 27 0
2 27 0
0 28 0
1 28 0
2 28 0
2 26 0
3 26 0
4 26 0
2 27 0
3 27 0
4 27 0
2 28 0
3 28 0
4 28 0
4 24 0
5 24 0
6 24 0
4 25 0
5 25 0
6 25 0
4 26 0
5 26 0
6 26 0
6 24 0
7 24 0
8 24 0
6 25 0
7 25 0
8 25 0
6 26 0
7 26 0
8 26 0
4 26 0
5 26 0
6 26 0
4 27 0
5 27 0
6 27 0
4 28 0
5 28 0
6 28 0
6 26 0
7 26 0
8 26 0
6 27 0
7 27 0
8 27 0
6 28 0
7 28 0
8 28 0
4 28 0
5 28 0
6 28 0
4 29 0
5 29 0
6 29 0
4 30 0
5 30 0
6 30 0
6 28 0
7 28 0
8 28 0
6 29 0
7 29 0
8 29 0
6 30 0
7 30 0
8 30 0
4 30 0
5 30 0
6 30 0
4 31 0
5 31 0
6 31 0
4 32 0
5 32 0
6 32 0
6 30 0
7 30 0
8 30 0
6 31 0
7 31 0
8 31 0
6 32 0
7 32 0
8 32 0
8 26 0
9 26 0
10 26 0
8 27 0
9 27 0
10 27 0
8 28 0
9 28 0
10 28 0
8 28 0
9 28 0
10 28 0
8 29 0
9 29 0
10 29 0
8 30 0
9 30 0
10 30 0
8 30 0
9 30 0
10 30 0
8 31 0
9 31 0
10 31 0
8 32 0
9 32 0
10 32 0
26 16 0
27 16 0
28 16 0
26 17 0
27 17 0
28 17 0
26 18 0
27 18 0
28 18 0
26 18 0
27 18 0
28 18 0
26 19 0
27 19 0
28 19 0
26 20 0
27 20 0
28 20 0
28 16 0
29 16 0
30 16 0
28 17 0
29 17 0
30 17 0
28 18 0
29 18 0
30 18 0
30 16 0
31 16 0
32 16 0
30 17 0
31 17 0
32 17 0
30 18 0
31 18 0
32 18 0
16 24 0
17 24 0
18 24 0
16 25 0
17 25 0
18 25 0
16 26 0
17 26 0
18 26 0
18 24 0
19 24 0
20 24 0
18 25 0
19 25 0
20 25 0
18 26 0
19 26 0
20 26 0
30 24 0
31 24 0
32 24 0
30 25 0
31 25 0
32 25 0
30 26 0
31 26 0
32 26 0
32 0 0
33 0 0
34 0 0
32 1 0
33 1 0
34 1 0
32 2 0
33 2 0
34 2 0
40 0 0
41 0 0
42 0 0
40 1 0
41 1 0
42 1 0
40 2 0
41 2 0
42 2 0
42 0 0
43 0 0
44 0 0
42 1 0
43 1 0
44 1 0
42 2 0
43 2 0
44 2 0
40 2 0
41 2 0
42 2 0
40 3 0
41 3 0
42 3 0
40 4 0
41 4 0
42 4 0
42 2 0
43 2 0
44 2 0
42 3 0
43 3 0
44 3 0
42 4 0
43 4 0
44 4 0
40 4 0
41 4 0
42 4 0
40 5 0
41 5 0
42 5 0
40 6 0
41 6 0
42 6 0
42 4 0
43 4 0
44 4 0
42 5 0
43 5 0
44 5 0
42 6 0
43 6 0
44 6 0
40 6 0
41 6 0
42 6 0
40 7 0
41 7 0
42 7 0
40 8 0
41 8 0
42 8 0
42 6 0
43 6 0
44 6 0
42 7 0
43 7 0
44 7 0
42 8 0
43 8 0
44 8 0
44 4 0
45 4 0
46 4 0
44 5 0
45 5 0
46 5 0
44 6 0
45 6 0
46 6 0
46 4 0
47 4 0
48 4 0
46 5 0
47 5 0
48 5 0
46 6 0
47 6 0
48 6 0
44 6 0
45 6 0
46 6 0
44 7 0
45 7 0
46 7 0
44 8 0
45 8 0
46 8 0
46 6 0
47 6 0
48 6 0
46 7 0
47 7 0
48 7 0
46 8 0
47 8 0
48 8 0
32 8 0
33 8 0
34 8 0
32 9 0
33 9 0
34 9 0
32 10 0
33 10 0
34 10 0
40 8 0
41 8 0
42 8 0
40 9 0
41 9 0
42 9 0
40 10 0
41 10 0
42 10 0
42 8 0
43 8 0
44 8 0
42 9 0
43 9 0
44 9 0
42 10 0
43 10 0
44 10 0
42 10 0
43 10 0
44 10 0
42 11 0
43 11 0
44 11 0
42 12 0
43 12 0
44 12 0
44 8 0
45 8 0
46 8 0
44 9 0
45 9 0
46 9 0
44 10 0
45 10 0
46 10 0
46 8 0
47 8 0
48 8 0
46 9 0
47 9 0
48 9 0
46 10 0
47 10 0
48 10 0
44 10 0
45 10 0
46 10 0
44 11 0
45 11 0
46 11 0
44 12 0
45 12 0
46 12 0
48 0 0
49 0 0
50 0 0
48 1 0
49 1 0
50 1 0
48 2 0
49 2 0
50 2 0
48 2 0
49 2 0
50 2 0
48 3 0
49 3 0
50 3 0
48 4 0
49 4 0
50 4 0
48 4 0
49 4 0
50 4 0
48 5 0
49 5 0
50 5 0
48 6 0
49 6 0
50 6 0
48 6 0
49 6 0
50 6 0
48 7 0
49 7 0
50 7 0
48 8 0
49 8 0
50 8 0
56 0 0
57 0 0
58 0 0
56 1 0
57 1 0
58 1 0
56 2 0
57 2 0
58 2 0
58 0 0
59 0 0
60 0 0
58 1 0
59 1 0
60 1 0
58 2 0
59 2 0
60 2 0
58 2 0
59 2 0
60 2 0
58 3 0
59 3 0
60 3 0
58 4 0
59 4 0
60 4 0
60 0 0
61 0 0
62 0 0
60 1 0
61 1 0
62 1 0
60 2 0
61 2 0
62 2 0
62 0 0
63 0 0
64 0 0
62 1 0
63 1 0
64 1 0
62 2 0
63 2 0
64 2 0
60 2 0
61 2 0
62 2 0
60 3 0
61 3 0
62 3 0
60 4 0
61 4 0
62 4 0
62 2 0
63 2 0
64 2 0
62 3 0
63 3 0
64 3 0
62 4 0
63 4 0
64 4 0
62 4 0
63 4 0
64 4 0
62 5 0
63 5 0
64 5 0
62 6 0
63 6 0
64 6 0
54 10 0
55 10 0
56 10 0
54 11 0
55 11 0
56 11 0
54 12 0
55 12 0
56 12 0
62 14 0
63 14 0
64 14 0
62 15 0
63 15 0
64 15 0
62 16 0
63 16 0
64 16 0
32 16 0
33 16 0
34 16 0
32 17 0
33 17 0
34 17 0
32 18 0
33 18 0
34 18 0
46 18 0
47 18 0
48 18 0
46 19 0
47 19 0
48 19 0
46 20 0
47 20 0
48 20 0
46 20 0
47 20 0
48 20 0
46 21 0
47 21 0
48 21 0
46 22 0
47 22 0
48 22 0
46 22 0
47 22 0
48 22 0
46 23 0
47 23 0
48 23 0
46 24 0
47 24 0
48 24 0
34 30 0
35 30 0
36 30 0
34 31 0
35 31 0
36 31 0
34 32 0
35 32 0
36 32 0
36 28 0
37 28 0
38 28 0
36 29 0
37 29 0
38 29 0
36 30 0
37 30 0
38 30 0
38 28 0
39 28 0
40 28 0
38 29 0
39 29 0
40 29 0
38 30 0
39 30 0
40 30 0
36 30 0
37 30 0
38 30 0
36 31 0
37 31 0
38 31 0
36 32 0
37 32 0
38 32 0
38 30 0
39 30 0
40 30 0
38 31 0
39 31 0
40 31 0
38 32 0
39 32 0
40 32 0
40 28 0
41 28 0
42 28 0
40 29 0
41 29 0
42 29 0
40 30 0
41 30 0
42 30 0
40 30 0
41 30 0
42 30 0
40 31 0
41 31 0
42 31 0
40 32 0
41 32 0
42 32 0
48 16 0
49 16 0
50 16 0
48 17 0
49 17 0
50 17 0
48 18 0
49 18 0
50 18 0
50 16 0
51 16 0
52 16 0
50 17 0
51 17 0
52 17 0
50 18 0
51 18 0
52 18 0
48 18 0
49 18 0
50 18 0
48 19 0
49 19 0
50 19 0
48 20 0
49 20 0
50 20 0
50 18 0
51 18 0
52 18 0
50 19 0
51 19 0
52 19 0
50 20 0
51 20 0
52 20 0
52 18 0
53 18 0
54 18 0
52 19 0
53 19 0
54 19 0
52 20 0
53 20 0
54 20 0
54 18 0
55 18 0
56 18 0
54 19 0
55 19 0
56 19 0
54 20 0
55 20 0
56 20 0
48 20 0
49 20 0
50 20 0
48 21 0
49 21 0
50 21 0
48 22 0
49 22 0
50 22 0
50 20 0
51 20 0
52 20 0
50 21 0
51 21 0
52 21 0
50 22 0
51 22 0
52 22 0
48 22 0
49 22 0
50 22 0
48 23 0
49 23 0
50 23 0
48 24 0
49 24 0
50 24 0
50 22 0
51 22 0
52 22 0
50 23 0
51 23 0
52 23 0
50 24 0
51 24 0
52 24 0
52 20 0
53 20 0
54 20 0
52 21 0
53 21 0
54 21 0
52 22 0
53 22 0
54 22 0
54 20 0
55 20 0
56 20 0
54 21 0
55 21 0
56 21 0
54 22 0
55 22 0
56 22 0
52 22 0
53 22 0
54 22 0
52 23 0
53 23 0
54 23 0
52 24 0
53 24 0
54 24 0
54 22 0
55 22 0
56 22 0
54 23 0
55 23 0
56 23 0
54 24 0
55 24 0
56 24 0
56 20 0
57 20 0
58 20 0
56 21 0
57 21 0
58 21 0
56 22 0
57 22 0
58 22 0
56 22 0
57 22 0
58 22 0
56 23 0
57 23 0
58 23 0
56 24 0
57 24 0
58 24 0
48 24 0
49 24 0
50 24 0
48 25 0
49 25 0
50 25 0
48 26 0
49 26 0
50 26 0
50 24 0
51 24 0
52 24 0
50 25 0
51 25 0
52 25 0
50 26 0
51 26 0
52 26 0
52 24 0
53 24 0
54 24 0
52 25 0
53 25 0
54 25 0
52 26 0
53 26 0
54 26 0
54 24 0
55 24 0
56 24 0
54 25 0
55 25 0
56 25 0
54 26 0
55 26 0
56 26 0
48 30 0
49 30 0
50 30 0
48 31 0
49 31 0
50 31 0
48 32 0
49 32 0
50 32 0
0 4 0
0.5 4 0
1 4 0
0 4.5 0
0.5 4.5 0
1 4.5 0
0 5 0
0.5 5 0
1 5 0
1 4 0
1.5 4 0
2 4 0
1 4.5 0
1.5 4.5 0
2 4.5 0
1 5 0
1.5 5 0
2 5 0
1 5 0
1.5 5 0
2 5 0
1 5.5 0
1.5 5.5 0
2 5.5 0
1 6 0
1.5 6 0
2 6 0
2 4 0
2.5 4 0
3 4 0
2 4.5 0
2.5 4.5 0
3 4.5 0
[...]
  <PointData Scalars="scalars">
    <DataArray type="Float32" Name="n0" format="ascii">
0 0 0 0 0 0 0 0 0 0 0 0 0 0 0 0 0 0 0 0 0 0 0 0 0 0 0 0 0 0 0 0 0 0 0 0 0 0 0 0 0 0 0 0 0 0 0 0 0 0 0 0 0 0 0 0 0 0 0 0 0 0 0 0 0 0 0 0 0 0 0 0 0 0 0 0 0 0 0 0 0 0 0 0 0 0 0 0 0 0 0 0 0 0 0 0 0 0 0 0 0 0 0 0 0 0 0 0 0 0 0 0 0 0 0 0 0 0 0 0 0 0 0 0 0 0 0 0 0 0 0 0 0 0 0 0 0 0 0 0 0 0 0 0 0 0 0 0 0 0 0 0 0 0 0 0 0 0 0 0 0 0 0 0 0 0 0 0 0 0 0 0 0 0 0 0 0 0 0 0 0 0 0 0 0 0 0 0 0 0 0 0 0 0 0 0 0 0 0 0 0 0 0 0 0 0 0 0 0 0 0 0 0 0 0 0 0 0 0 0 0 0 0 0 0 0 0 0 0 0 0 0 0 0 0 0 0 0 0 0 0 0 0 0 0 0 0 0 0 0 0 0 0 0 0 0 0 0 0 0 0 0 0 0 0 0 0 0 0 0 0 0 0 0 0 0 0 0 0 0 0 0 0 0 0 0 0 0 0 0 0 0 0 0 0 0 0 0 0 0 0 0 0 0 0 0 0 0 0 0 0 0 0 0 0 0 0 0 0 0 0 0 0 0 1 1 1 1 1 1 1 1 1 0 0 0 0 0 0 0 0 0 0 0 0 0 0 0 0 0 0 0 0 0 0 0 0 0 0 0 0 0 0 0 0 0 0 0 0 0 0 0 0 0 0 0 0 0 0 0 0 0 0 0 0 0 0 0 0 0 0 0 0 0 0 0 0 0 0 0 0 0 0 0 0 0 0 0 0 0 0 0 0 0 0 0 0 0 0 0 0 0 0 0 0 0 0 0 0 0 0 0 0 0 0 0 0 0 0 0 0 0 0 0 0 0 0 0 0 0 0 0 0 0 0 0 0 0 0 0 0 0 0 0 0 0 0 0 0 0 0 0 0 0 0 0 0 0 0 0 0 0 0 0 0 0 0 0 0 0 0 0 0 0 0 0 0 0 0 0 0 0 0 0 0 0 0 0 0 0 0 0 0 0 0 0 0 0 0 0 0 0 0 0 0 0 0 0 0 0 0 0 0 0 0 0 0 0 0 0 0 0 0 0 0 0 0 0 0 0 0 0 0 0 0 0 0 0 0 0 0 0 0 0 0 0 0 0 0 0 0 0 0 0 0 0 0 0 0 0 0 0 0 0 0 0 0 0 0 0 0 0 0 0 0 0 0 0 0 0 0 0 0 0 0 0 0 0 0 0 0 0 0 0 0 0 0 0 0 0 0 0 0 0 0 0 0 0 0 0 0 0 0 0 0 0 0 0 0 0 0 0 0 0 0 0 0 0 0 0 0 0 0 0 0 0 0 -1.33333e-08 0 0 -2.66667e-08 0 0 -2.66667e-08 0 0 0 0 0 0 0 0 0 0 0 0 0 0 0 0 0 0 0 0 0 0 0 0 0 0 0 0 0 0 0 0 0 0 0 0 0 0 0 0 0 0 0 0 0 0 0 0 0 0 0 0 0 0 0 0 0 0 0 0 0 0 0 0 0 0 0 0 0 0 0 0 0 0 0 0 0 0 0 0 0 0 0 0 0 0 0 0 0 0 0 0 0 0 0 0 0 0 0 0 0 0 0 0 0 0 0 0 0 0 0 0 0 0 0 0 0 0 0 0 0 0 0 0 0 0 0 0 0 0 0 0 0 0 0 0 0 0 0 0 0 0 0 -1.77778e-08 0 0 0 0 0 0 0 0 0 0 0 0 0 0 0 0 0 0 0 0 0 0 0 0 0 0 0 0 0 0 0 0 0 0 0 0 0 0 0 0 0 0 0 0 0 0 0 0 0 0 0 0 0 0 0 0 0 0 0 0 0 0 0 0 0 0 0 0 0 0 0 0 0 0 0 0 0 0 0 0 0 0 0 0 0 0 0 0 0 0 0 0 0 0 0 0 0 0 0 0 0 0 0 0 0 0 0 0 0 0 0 0 0 0 0 0 0 0 0 0 0 0 0 0 0 0 0 0 0 0 0 0 0 0 0 0 0 0 0 0 0 0 0 0 0 0 1 1 1 1 1 1 1 1 1 0 0 0 0 0 0 0 0 0 0 0 0 0 0 0 0 0 0 0 0 0 0 0 0 0 0 0 0 0 0 0 0 0 0 0 0 0 0 0 0 0 0 0 0 0 0 0 0 0 0 0 0 0 0 0 0 0 0 0 0 0 0 0 0 0 0 0 0 0 0 0 0 0 0 0 0 0 0 0 0 0 0 0 0 0 0 0 0 0 0 0 0 0 0 0 0 0 0 0 0 0 0 0 0 0 0 0 0 0 0 0 0 0 0 0 0 0 0 0 0 0 0 0 0 0 0 0 0 0 0 0 0 0 0 0 0 0 0 0 0 0 0 0 0 0 0 0 0 0 0 0 0 0 0 0 0 0 0 0 0 0 0 0 0 0 0 0 0 0 0 0 0 0 0 0 0 0 0 0 0 0 0 0 0 0 0 0 0 0 0 0 0 0 0 0 0 0 0 0 0 0 0 0 0 0 0 0 0 0 0 0 0 0 0 0 0 0 0 0 0 0 0 0 0 0 0 0 0 0 0 0 0 0 0 0 0 0 0 0 0 0 0 0 0 0 0 0 0 0 0 0 0 0 0 0 0 0 0 0 0 0 0 0 0 0 0 0 0 0 0 0 0 0 0 0 0 0 0 0 0 0 0 0 0 0 0 0 0 0 0 0 0 0 0 -1.33333e-07 -6.66667e-08 -5.00016e-07 0 0 0 0 0 0 -5.00016e-07 -4e-08 0 -5.00016e-07 -4e-08 0 1.07844e-06 1.6e-07 0 0.000174851 4.79088e-05 -8.18315e-06 0 0 0 0 0 0 0 0 0 0 0 0 0 0 0 0 0 0 0 0 0 0 0 0 -8.18315e-06 0 0 0 0 0 0 0 0 0 0 0 0 0 0 0 0 0 -5.68889e-07 0 0 0 0 0 0 0 0 0 0 0 0 0 0 0 0 0 0 0 0 0 0 0 0 0 0 0 0 0 0 0 0 0 0 0 0 0 0 0 0 0 0 0 0 0 0 0 0 0 0 0 0 0 0 0 0 0 0 0 0 0 0 0 0 0 0 0 0 0 0 0 0 0 0 0 0 0 0 0 0 0 0 0 0 0 0 0 0 0 0 0 0 0 0 0 0 0 0 0 0 0 0 0 0 0 0 0 0 0 0 0 0 0 0 0 0 0 0 0 0 0 0 0 0 0 0 0 0 0 0 0 0 0 0 0 0 0 0 0 0 0 0 0 0 0 0 0 0 0 0 0 0 0 0 0 0 0 0 0 0 0 0 0 0 0 0 0 0 0 0 0 0 0 0 0 0 0 0 0 0 0 0 0 0 0 0 0 0 0 0 0 0 0 0 0 0 0 0 0 0 0 0 0 0 0 0 0 0 0 0 0 0 0 0 0 0 0 0 0 0 0 0 0 0 0 0 0 0 0 0 0 0 0 0 0 0 0 0 0 0 0 0 0 0 0 0 0 0 0 0 0 0 0 0 0 0 0 0 0 0 0 0 0 0 0 0 0 0 0 0 0 0 0 0 0 0 0 0 0 0 0 0 0 0 0 0 0 0 0 0 0 0 0 0 0 0 0 0 0 0 0 0 0 0 0 0 0 0 0 0 0 0 0 0 0 0 0 0 0 0 0 0 0 0 0 0 0 0 0 0 0 0 0 0 0 0 0 0 0 0 0 0 0 0 0 0 0 0 0 0 0 0 0 1 1 0.999958 1 1 1 1 1 1.00002 0.999958 1.00015 0.995938 1 1 1.0003 1.00002 0.999965 0.99534 1 1 1.00002 1 1 0.999999 1 1 1.00002 4.83764e-05 3.14997e-07 -1.56e-07 5.14997e-07 0 0 -9.82686e-07 0 0 0.000189262 1.66013e-06 -9.82686e-07 1.59346e-06 0 0 -1.3267e-06 0 0 -9.82686e-07 0 0 0 0 0 0 0 0 -2.84444e-07 0 0 0 0 0 -1.56e-07 0 0 0 0 0 0 0 0 0 0 0 0 0 0 0 0 0 0 0 0 0 0 0 0 0 0 0 0 0 -1.56e-07 0 0 0 0 0 0 0 0 0 0 0 0 0 0 0 0 0 0 0 0 0 0 0 0 0 0 0 0 0 0 0 0 0 0 0 0.000140334 1.27844e-06 -1.3267e-06 1.07844e-06 0 0 -5.00016e-07 0 0 -1.33333e-07 -6.66667e-08 -5.00016e-07 0 0 0 0 0 0 -5.00016e-07 0 0 0 0 0 0 0 0 -1.3267e-06 0 0 0 0 0 0 0 0 0 0 0 0 0 0 0 0 0 0 0 0 0 0 0 0 0 0 0 0 0 0 0 0 0 0 0 0 0 0 0 0 0 0 0 0 0 0 0 0 0 0 0 0 0 0 0 0 0 0 0 0 0 0 0 0 0 0 0 0 0 0 0 0 0 0 0 0 0 0 0 0 0 0 0 0 0 0 0 0 0 0 0 0 0 0 0 0 0 0 0 0 0 0 0 0 0 0 0 0 0 0 0 0 0 0 0 0 0 0 0 0 0 0 0 0 0 0 0 0 0 0 0 0 0 0 0 0 0 0 0 0 0 0 0 0 0 0 0 0 0 0 0 0 0 0 0 0 0 0 0 0 0 0 0 0 0 0 0 0 0 0 0 0 0 0 0 0 0 0 0 0 0 0 0 0 0 0 0 0 0 0 0 0 0 0 0 0 0 0 0 0 0 0 0 0 0 0 0 0 0 0 0 0 0 0 0 0 0 0 0 0 0 0 0 0 0 0 0 0 0 0 0 0 0 0 0 -1.33333e-07 0 0 -6.66667e-08 0 0 -5.00015e-07 0 0 0 0 0 0 0 0 0 0 0 -5.00015e-07 0 0 -4e-08 0 0 0 -5.00015e-07 1.07843e-06 0.00017485 -4e-08 1.6e-07 4.79088e-05 0 0 -8.18314e-06 1 1 1 1 1 1 0.999959 1 1 0.999959 1 1 1.00015 1 1 0.995396 0.999965 1.00002 0 0 -8.18314e-06 0 0 0 0 0 -1.56e-07 0 0 -1.56e-07 0 0 0 0 0 0 -1.56e-07 3.14997e-07 4.83764e-05 0 0 5.14997e-07 0 0 -9.82686e-07 0 0 0 0 0 0 0 0 0 0 0 -9.82686e-07 0 0 0 0 0 0 0 0 0 0 0 0 0 0 0 0 0 0 0 0 0 0 0 0 -9.82686e-07 1.66013e-06 0.000189262 0 0 1.59346e-06 0 0 -1.48271e-06 0 0 -1.48271e-06 0 0 0 0 0 0 -1.48271e-06 1.59346e-06 0.000189227 0 0 1.55346e-06 0 0 -1.02003e-06 0 0 0 0 0 0 0 0 0 0 0 -1.02003e-06 0 0 0 0 0 0 0 0 0 0 0 0 0 0 0 0 0 0 0 0 0 0 0 0 1 1 1 1 1 1 1 1 1 1 1 1 1 1 1 1 1 1 1 1 1 1 1 1 1.00002 1 1 1 1 1 1 1 1 1 1 1 1.00002 1 1 0.999999 1 1 1.00002 1 1 1 1 1 1 1 1 1 1 1 1 1 1 1 1 1 1.00002 1 1 1 1 1 1 1 1 1 1 1 1 1 1 1 1 1 1 1 1 1 1 1 1 1 1 1 1 1 1 1 1 1 1 1 1 1 1 1 1 1.00065 1 1 1.00019 1 1 0.999937 1 1 0.999937 1 1 0.999999 1 1 0.999999 -1.54262e-05 0 -1.33333e-08 4.71453e-05 1.6e-07 -2.16667e-08 8.08343e-05 1.6e-07 -2.66667e-08 8.08343e-05 1.6e-07 -2.66667e-08 7.24379e-05 1.6e-07 -2.83333e-08 7.24379e-05 1.6e-07 -2.66667e-08 1 1 0.999999 1 1 0.999999 1 1 0.999999 1 1 0.999999 1 1 0.999999 1 1 0.999999 7.24379e-05 1.6e-07 -2.66667e-08 7.24379e-05 1.6e-07 -4e-08 7.24379e-05 1.6e-07 -4e-08 7.24379e-05 1.6e-07 -4e-08 7.24379e-05 1.6e-07 -4e-08 7.19823e-05 3.14993e-07 -1.94995e-07 1 1 1 1 1 1 1.00015 1 1 1 1 1 1 1 1 1 1 1 1.00015 1 1 1.00049 1 1 0.995845 1.00049 1.00015 1 1 1 1 1 1 1.00015 0.999999 1.00002 0 0 -4.26667e-07 0 0 0 0 0 0 1 1 0.999999 1 1 0.999999 1 1 1.00002 0.000189209 1.59346e-06 -1.48271e-06 1.59346e-06 0 0 -1.3267e-06 0 0 0.000189262 1.66013e-06 -9.40025e-07 1.59346e-06 0 0 -1.48271e-06 0 0 -9.40025e-07 0 0 0 0 0 0 0 0 -1.48271e-06 0 0 0 0 0 0 0 0 0 0 0 0 0 0 0 0 0 0 0 0 0 0 0 0 0 0 0 0 0 0 0 0 0 0 0 0 0 0 0 0 0 0 0 0 0 0 0 0 0 0 0 0 0 0 0 0 0 0 0 0 0 0 0 0 0 0 0 0 0 0 0 0 0 0 0 0 0 0 0 0 0 0 0 0 0 0 0 0 0 0 0 0 0 0 0 0 0 0 0 0 0 0 0 0 0 0 0 0 0 0 0 0 0 0 0 0 0 0 0 0 0 0 0 0 0 0 0 0 0 0 0 0 0 0 0 0 0 0 0 0 0 0 0 0 0 0 0 0 0 0 0 0 0 0 0 0 0 0 0 0 0 0 0 0 0 0 0 0 0 0 0 0 0 0 0 0 0 0 0 0 0 0 0 0 0 0 0 0 0 0 0 0 0 0 0 0 0 0 0 0 0 0 0 0 0 0 0 0 0 0 0 0 0 0 0 0 0 0 0 0 0 0 0 0 0 0 0 0 0 0 0 0 0 0 0 0 0 0 0 0 0 0 0 0 0 0 0 0 0 0 0 0 0 -7.11111e-08 0 0 0 0 0 0 0 0 0 0 0 0 0 0 0 0 0 0 0 0 0 0 0 0 0 0 0 0 0 0 0 0 0 0.00013884 1.27843e-06 -1.3267e-06 1.07842e-06 0 0 -6.38341e-07 0 0 -1.3267e-06 0 0 0 0 0 0 0 0 -6.38341e-07 0 0 0 0 0 0 0 0 0 0 0 0 0 0 0 0 0 0 0 0 0 0 0 0 0 0 0 0 0 0 0 0 0 0 0 0 0 0 0 0 0 0 0 0 0 0 0 0 0 0 0 0 0 0 0 0 0 0 0 0 0 0 0 0 0 0 0 0 0 0 0 0 0 0 0 0 0 0 0 0 0 0 0 0 0 0 0 0 0 0 0 0 0 0 0 0 0 0 0 0 0 0 0 0 0 0 0 0 0 0 0 0 0 0 0 0 0 0 0 0 0 0 0 0 0 0 0 0 0 0 0 0 0 0 0 0 0 0 0 0 0 0 0 0 0 0 0 0 0 0 0 0 0 0 0 0 0 0 0 0 0 0 0 0 0 0 0 0 0 0 0 0 0 0 0 0 0 0 0 0 0 0 0 0 0 0 0 0 0 0 0 0 0 0 0 0 0 0 0 0 0 0 0 0 0 0 0 0 0 0 0 0 0 0 0 0 0 0 0 0 0 0 0 0 0 0 0 0 0 0 0 0 0 0 0 0 0 0 0 0 0 0 0 0 0 0 0 0 0 0 0 0 0 0 0 0 0 0 0 0 0 0 0 0 0 0 0 0 0 0 0 0 0 0 0 0 0 0 0 0 0 0 0 0 0 0 0 0 0 0 0 0 0 0 0 0 0 0 0 0 0 0 0 0 0 0 0 0 0 0 0 0 0 0 0 0 0 0 0 0 0 0 0 0 0 0 0 0 0 0 0 0 0 0 0 0 0 0 0 0 0 0 0 0 0 0 0 0 0 0 0 0 0 0 0 0 0 0 0 0 0 0 0 0 0 0 0 0 0 0 0 0 0 0 0 0 0 0 0 0 0 0 0 0 0 0 0 0 0 0 0 0 0 0 0 0 0 0 0 0 0 0 0 0 0 0 0 0 0 0 0 0 0 0 0 0 0 0 0 0 0 0 0 0 0 0 0 0 0 0 0 0 0 0 0 0 0 0 0 0 0 0 0 0 0 0 0 0 0 0 0 0 0 0 0 0 0 0 0 0 0 0 0 0 0 0 0 0 0 0 0 0 0 0 0 0 0 0 0 0 0 0 0 0 0 0 0 0 0 0 0 0 0 0 0 0 0 0 0 0 0 0 0 0 0 0 0 0 0 0 0 0 0 0 0 0 0 0 0 0 0 0 0 0 0 0 0 0 0 0 0 0 0 0 0 0 0 0 0 0 0 0 0 0 0 0 0 0 0 0 0 0 0 0 0 0 0 0 0 0 0 0 0 0 0 0 0 0 0 0 0 0 0 0 0 0 0 0 0 0 0 0 0 0 0 0 0 0 0 0 0 0 0 0 0 0 0 0 0 0 0 0 0 0 0 0 0 0 0 0 0 0 0 0 0 0 0 0 0 0 0 0 0 0 0 0 0 0 0 0 0 0 0 0 0 0 0 0 0 0 0 0 0 0 0 0 0 0 0 0 0 0 0 0 0 0 0 0 0 0 0 0 0 0 0 0 0 0 0 0 0 0 0 0 0 0 0 0 0 0 0 0 0 0 0 0 0 0 0 0 0 0 0 0 0 0 0 0 0 0 0 0 0 0 0 0 0 0 0 0 0 0 0 0 0 0 0 0 0 0 0 0 0 0 0 0 0 0 0 0 0 0 0 0 0 0 0 0 0 0 0 0 0 0 0 0 0 0 0 0 0 0 0 0 0 0 0 0 0 0 0 0 0 0 0 0 0 0 0 0 0 0 0 0 0 0 0 0 0 0 0 0 0 0 0 0 0 0 0 0 0 0 0 0 0 0 0 0 0 0 0 0 0 0 0 0 0 0 0 0 0 0 0 0 0 0 0 0 0 0 0 0 0 0 0 0 0 0 0 0 0 0 0 0 0 0 0 0 0 0 0 0 0 0 0 0 0 0 0 0 0 0 0 0 0 0 0 0 0 0 0 0 0 0 0 0 0 0 0 0 0 0 0 0 0 0 0 0 0 0 0 0 0 0 0 0 0 0 0 0 0 0 0 0 0 0 0 0 0 0 0 0 0 0 0 0 0 0 0 0 0 0 0 0 0 0 0 0 0 0 0 0 0 0 0 0 0 0 0 0 0 0 0 0 0 0 0 0 0 0 0 0 0 0 0 0 0 0 0 0 0 0 0 0 0 0 0 0 0 0 0 0 0 0 0 0 0 0 0 0 0 0 0 0 0 0 0 0 0 0 0 0 0 0 0 0 0 0 0 0 0 0 0 0 0 0 0 0 0 0 0 0 0 0 0 0 0 0 0 0 0 0 0 0 0 0 0 0 0 0 0 0 0 0 0 0 0 0 0 0 0 0 0 0 0 0 0 0 0 0 0 0 0 0 0 0 0 0 0 0 0 0 0 0 0 0 0 0 0 0 0 0 0 0 0 0 0 0 0 0 0 0 0 0 0 0 0 0 0 0 0 0 0 0 0 0 0 0 0 0 0 0 0 0 0 0 0 0 0 0 0 0 0 0 0 0 0 0 0 0 0 0 0 0 0 0 0 0 0 0 0 0 0 0 0 0 0 0 0 0 0 0 0 0 0 0 0 0 0 0 0 0 0 0 0 0 0 0 0 0 0 0 0 0 0 0 0 0 0 0 0 0 0 0 0 0 0 0 0 0 0 0 0 0 0 0 0 0 0 0 0 0 0 0 0 0 0 0 0 0 0 0 0 0 0 0 0 0 0 0 0 0 0 0 0 0 0 0 0 0 0 0 0 0 0 0 0 0 0 0 0 0 0 0 0 0 0 0 0 0 0 0 0 0 0 0 0 0 0 0 0 0 0 0 0 0 0 0 0 0 0 0 0 0 0 0 0 0 0 0 0 0 0 0 0 0 0 0 0 0 0 0 0 0 0 0 0 0 0 0 0 0 0 0 0 0 0 0 0 0 0 0 0 0 0 0 0 0 0 0 0 0 0 0 0 0 0 0 0 0 0 0 0 0 0 0 0 0 0 0 0 0 0 0 0 0 0 0 0 0 0 0 0 0 0 0 0 0 0 0 0 0 0 0 0 0 0 0 0 0 0 0 0 0 0 0 0 0 0 0 0 0 0 0 0 0 0 0 0 0 0 0 0 0 0 0 0 0 0 0 0 0 0 0 0 0 0 0 0 0 0 0 0 0 0 0 0 0 0 0 0 0 0 0 0 0 0 0 0 0 0 0 0 0 0 0 0 0 0 0 0 0 0 0 0 0 0 0 0 0 0 0 0 0 0 0 0 0 0 0 0 0 0 0 0 0 0 0 0 0 0 0 0 0 0 0 0 0 0 0 0 0 0 0 0 0 0 0 0 0 0 0 0 0 0 0 0 0 0 0 0 0 0 0 0 0 0 0 0 0 0 0 0 0 0 0 0 0 0 0 0 0 0 0 0 0 0 0 0 0 0 0 0 0 0 0 0 0 0 0 0 0 0 0 0 0 0 0 0 0 0 0 0 0 0 0 0 0 0 0 0 0 0 0 0 0 0 0 0 0 0 0 0 0 0 0 0 0 0 0 0 0 0 0 0 0 0 0 0 0 0 0 0 0 0 0 0 0 0 0 0 0 0 0 0 0 0 0 0 0 0 0 0 0 0 0 0 0 0 0 0 0 0 0 0 0 0 0 0 0 0 0 0 0 0 0 0 0 0 0 0 0 0 0 0 0 0 0 0 0 0 0 0 0 0 0 0 0 0 0 0 0 0 0 0 0 0 0 0 0 0 0 0 0 0 0 0 0 0 0 0 0 0 0 0 0 0 0 0 0 0 0 -5.68889e-07 0 0 0 0 0 0 -7.11111e-08 0 -1.56e-07 0.999937 1.00019 1.00061 0.999999 1 1 1.00002 1 1 1.00061 1.0005 0.995321 1 1 0.999965 1 1 1.00002 0 0 0 0 0 0 0 0 0 0 0 0 0 0 0 0 0 0 0 0 0 0 0 0 0 0 0 0 0 0 0 0 0 0 0 0 0 0 0 0 0 0 0 0 0 0 0 0 0 0 0 0 0 0 0 0 0 0 0 0 0 0 0 0 0 0 0 0 0 0 0 0 0 0 0 0 0 0 0 0 0 0 0 0 0 0 0 0 0 0 0 0 0 0 0 0 0 0 0 0 0 0 0 0 0 0 0 0 0 0 0 0 0 0 0 0 0 0 0 0 0 0 0 0 0 0 0 0 0 0 0 0 0 0 0 0 0 0 0 0 0 0 0 0 0 0 0 0 0 0 0 0 0 0 0 0 0 0 0 0 0 0 0 0 0 0 0 0 -1.56e-07 -4e-08 -1.56e-07 0 0 0 0 0 0 -1.56e-07 0 -7.11111e-08 -1.56e-07 -4e-08 -1.56e-07 3.14997e-07 1.6e-07 3.14997e-07 7.1769e-05 7.24379e-05 7.1769e-05 0.995321 1.0005 1.00057 0.999965 1 1 1.00002 1 1.00002 0 0 0 0 0 0 0 0 0 0 0 0 0 0 0 0 0 0 0 0 0 0 0 0 0 0 0 0 0 0 0 0 0 -3.81666e-07 0 0 0 0 0 0 0 0 0 0 0 0 0 0 0 0 0 0 0 0 0 0 0 0 0 0 0 0 0 0 0 0 0 0 0 0 0 0 0 0 0 0 0 0 0 0 0 -2.66667e-08 -1e-08 0 -4e-08 0 0 -4e-08 0 0 0 3.33333e-09 0 0 0 0 0 0 0 -4e-08 0 0 -4e-08 0 0 -1.94995e-07 0 0 0 0 0 0 0 0 0 0 0 0 0 0 0 0 0 0 0 0 0 0 0 0 0 0 0 0 0 0 0 0 0 0 0 0 0 0 0 0 0 0 0 0 0 0 0 0 0 0 0 0 0 0 0 0 0 0 0 0 0 0 0 0 0 0 0 0 0 0 0 0 0 0 0 0 0 0 0 0 0 0 0 0 0 0 0 0 0 0 0 0 0 0 0 0 0 0 0 0 0 0 0 0 0 0 0 0 0 0 0 0 0 0 0 0 0 0 0 0 0 0 0 0 0 0 0 0 0 0 0 0 0 0 0 0 0 0 0 0 0 0 0 0 0 0 0 0 0 0 0 0 0 0 0 0 0 0 0 0 0 0 0 0 0 0 0 0 0 0 0 0 0 0 0 0 0 0 0 0 0 0 0 0 0 0 0 0 0 0 0 0 0 0 0 0 0 0 0 0 0 0 0 0 0 0 0 0 0 0 0 0 0 0 0 0 0 0 0 0 0 0 0 0 0 0 0 0 0 0 0 0 0 0 0 0 0 0 0 0 0 0 0 0 0 0 0 0 0 0 0 0 0 0 0 0 0 0 0 0 0 0 0 0 0 0 0 0 0 0 0 0 0 0 0 0 0 0 0 0 0 0 0 0 0 0 0 0 0 0 0 0 0 0 0 0 0 0 0 0 0 0 0 0 0 0 0 0 0 0 0 0 0 0 0 0 0 0 0 0 0 0 0 0 0 0 0 0 0 0 0 0 0 0 0 0 0 0 0 0 0 0 0 0 0 0 0 0 0 0 0 0 0 0 0 0 0 0 0 0 0 0 0 0 0 0 0 0 0 0 0 0 0 0 0 0 0 0 0 0 0 0 0 0 0 0 0 0 0 0 0 0 0 0 0 0 0 0 0 0 0 0 0 0 -1.94995e-07 -4e-08 -4e-08 0 0 0 0 0 0 -4e-08 0 0 -1.94995e-07 -4e-08 -4e-08 3.14993e-07 1.6e-07 1.6e-07 7.19823e-05 7.24379e-05 5.49601e-05 -4e-08 0 0 1.6e-07 0 0 5.49601e-05 4.74997e-07 -4.21666e-07 0 0 0 0 0 0 0 0 0 0 0 0 0 0 0 0 0 0 0 0 0 0 0 0 0 0 0 0 0 0 0 0 0 0 0 0 0 0 -1.06667e-07 0 0 -1.06667e-07 0 0 -1.06667e-07 0 0 -1.06667e-07 0 0 -1.06667e-07 0 0 -1.06667e-07 1.00054 1 0.999998 1.00053 1 1 1.00053 1 1 1.00053 1 1 1.00053 1 1 1.00053 1 1 0.999998 0.999999 1.00013 1 1 1 1 1 1 1.00013 1.00053 1.00054 1 1 1 1 1 0.999999 1 1 1 1 1 1 1 1 1 1 1 0.999999 1 1 1 1 1 1 0 0 0 0 0 0 0 0 0 0 0 0 0 0 2.22222e-09 0 0 0 0 0 0 0 0 0 -4.21666e-07 -6.66667e-08 -5.00016e-07 0 0 0 0 0 -6.66667e-09 -5.00016e-07 -4e-08 -1.77778e-08 0 0 0 0 0 0 0 0 0 0 0 0 0 0 0 0 0 0 0 0 0 0 0 0 0 0 0 0 0 0 0 0 0 0 0 0 -5.00016e-07 -4e-08 -1.77778e-08 1.07844e-06 1.6e-07 1.6e-07 0.000163655 7.32014e-05 5.45034e-05 -1.77778e-08 -6.66667e-09 0 1.6e-07 0 0 5.45034e-05 5.14997e-07 -9.82686e-07 0 2.22222e-09 0 0 0 0 -9.82686e-07 -4e-08 0 -9.82686e-07 -4e-08 0 1.66013e-06 1.6e-07 0 0.000223779 4.82238e-05 -8.37815e-06 0.999999 1 0.999999 1 1 1 1 1 1 0.999999 0.999999 1.00002 1 1 1 1 1 0.999999 0 0 0 0 0 0 0 0 0 0 0 0 0 0 0 0 0 0 0 0 0 0 0 0 -8.37815e-06 0 0 0 0 0 0 0 0 0 0 0 0 0 0 0 0 0 0 0 0 0 0 0 0 0 0 0 0 0 0 0 0 0 0 0 0 0 0 0 0 0 0 0 0 0 0 0 0 0 0 0 0 0 0 0 0 0 0 0 0 0 0 0 0 0 0 0 0 0 0 0 0 0 0 0 0 0 0 0 0 0 0 0 0 0 0 0 0 0 0 0 0 0 0 0 0 0 0 0 0 0 0 0 0 0 0 0 0 0 0 0 0 0 0 0 0 0 0 0 0 0 0 0 0 0 0 0 0 0 0 0 0 0 0 0 0 0 0 0 0 0 0 0 0 0 0 0 0 0 0 0 0 0 0 0 0 0 0 0 0 0 0 0 0 0 0 0 0 0 0 0 0 0 0 0 0 0 0 0 0 0 0 0 0 0 0 0 0 0 0 0 0 0 0 0 0 0 0 0 0 0 0 0 0 0 0 0 0 0 0 0 0 0 0 0 0 0 0 0 0 0 0 0 0 0 0 0 0 0 0 0 0 0 0 0 0 0 0 0 0 0 0 0 0 0 0 0 0 0 0 0 0 0 0 0 0 0 0 0 0 0 0 0 0 0 0 0 0 0 0 0 0 0 0 0 0 0 0 0 0 0 0 0 0 0 0 0 0 0 0 0 0 0 0 0 0 0 0 0 0 0 0 0 0 0 0 0 0 0 0 0 0 0 0 0 0 0 0 0 0 0 0 0 0 0 0 0 0 0 0 0 0 0 0 0 0 0 0 0 0 0 0 0 0 0 0 0 0 0 0 0 0 0 0 0 0 0 0 0 0 0 0 0 0 0 0 0 0 0 0 0 0 0 0 0 0 0 0 0 0 0 0 0 0 0 0 0 0 0 0 0 0 0 0 0 0 0 0 0 0 0 0 0 0 0 0 0 0 0 0 0 0 0 0 0 0 0 0 0 0 0 0 0 0 0 0 0 0 0 0 0 0 0 0 0 0 0 0 0 0 0 0 -1.55999e-07 0 0 0 0 0 0 0 0 0 0 0 0 0 0 0 0 0 0 0 0 0 0 0 0 -1.55999e-07 -4e-08 0 0 0 0 0 0 0 0 0 0 0 0 0 0 0 0 0 0 0 0 0 0 0 0 0 0 0 0 0 0 0 0 0 0 0 0 0 0 0 0 0 0 0 0 0 0 0 0 0 0 0 0 0 0 0 0 0 0 0 0 0 0 0 0 0 0 0 0 0 0 0 0 0 0 0 0 0 0 0 0 0 0 0 0 0 0 0 0 0 0 0 0 0 0 0 0 0 0 0 0 0 0 0 0 0 0 0 0 0 0 0 0 0 0 0 0 0 0 0 0 0 0 0 0 0 0 0 0 0 0 0 0 0 0 0 0 0 0 0 0 0 0 0 0 0 0 0 0 0 0 0 0 0 0 0 0 0 0 0 0 0 0 0 0 0 0 0 0 0 0 0 0 0 0 0 0 0 0 0 0 0 0 0 0 0 0 0 0 0 0 0 0 0 0 0 0 0 0 0 0 0 0 0 0 0 0 0 0 0 0 0 0 0 0 0 0 0 0 0 0 0 0 0 0 0 0 0 0 0 0 0 0 0 0 0 0 0 0 0 0 0 0 0 0 0 0 0 0 0 0 0 0 0 0 0 0 0 0 0 0 0 0 0 0 0 0 0 0 0 0 0 0 0 0 0 0 0 0 0 0 0 0 0 0 0 0 0 0 0 0 0 0 0 0 0 0 0 0 0 0 0 0 0 0 0 0 0 0 0 0 0 0 0 0 0 0 0 0 0 0 0 0 0 0 0 0 0 0 0 0 0 0 0 0 0 0 0 0 0 0 0 0 0 0 0 0 0 0 0 0 0 0 0 0 0 0 0 0 0 0 0 0 0 0 0 0 0 0 0 0 0 0 0 0 0 0 0 0 0 0 0 0 0 0 0 0 0 0 0 0 0 0 0 0 0 0 0 0 0 0 0 0 0 0 0 -5.68889e-07 0 0 0 0 0 0 0 0 -4.97778e-07 -1.55999e-07 -4e-08 0 3.14995e-07 1.6e-07 0 8.16841e-05 4.71453e-05 -7.76642e-06 0 0 0 0 0 0 -7.76642e-06 -1.06667e-07 -1.06667e-07 0.995313 1.00015 1.00061 1.00015 1 1 0.999934 1 1 1.00061 1.00053 1.00053 1 1 1 1 1 1 0 0 0 0 0 0 0 0 0 0 0 0 0 0 0 0 0 -8.2502e-07 0 0 0 0 0 0 0 0 -6.38354e-07 0 0 -8.2502e-07 0 0 1.23844e-06 -6.38354e-07 1.07844e-06 0.000140352 0.995991 1.00015 0.999934 1.00015 1 1 0.999933 1 1 0.995918 1.00015 0.999933 1.00049 1 1 1.00015 1 1 0.999933 1 1 1 1 1 1 1 1 0.999934 1 1 1 1 1 1 1 1 1 1 1 1 1 1 1 1 1 1 1 1 1 1 1 1 1 1 1 1 1 1 1 1 1 1 1 1.00015 1 1 1 1 1 1 1 1 1 1 1 1 1 1 1 1 1 1 1 1 1 1 1 0.999959 1 1 1 1 1 1 1 1 1 1 1 0 0 -1.06667e-07 0 0 -1.06667e-07 0 0 -1.06667e-07 0 0 -1.06667e-07 0 0 -1.06667e-07 0 0 -8e-08 0 0 0 0 0 0 0 0 0 0 0 0 0 0 0 0 0 0 0 0 0 0 0 0 0 0 0 0 0 0 0 0 0 0 0 0 0 0 -8e-08 0 0 0 0 0 0 1.00053 1 1 1.00053 1 1 1.00053 1 1.00002 1 1 1 1 1 1 1.00002 1 1 1 1 1 1 1 1 1 1 1 1.00002 1 1 0.999965 1 1 0.995397 1.00015 0.999959 1 1 1 1 1 1 0.999959 1 0.999999 0 0 0 0 0 0 0 0 0 0 0 0 0 0 0 0 0 0 0 0 0 0 0 0 0 0 0 0 0 0 0 0 0 0 0 0 0 0 -8.18315e-06 0 0 0 0 0 0 0 0 0 0 0 0 0 0 0 0 0 0 0 0 0 0 0 0 -8.18315e-06 4.79088e-05 0.00017478 0 1.6e-07 1.07844e-06 0 -4e-08 -5.00016e-07 0 -4e-08 -5.00016e-07 0 0 0 0 0 0 -5.00016e-07 -6.66667e-08 -6.22222e-07 0 0 0 0 0 0 0 0 0 0 0 0 0 0 0 0 0 0 0 0 0 0 0 0 0 0 0 0 0 0 0 0 0 0 0 0 0 0 0 0 0 0 0 0 0 0 0 0 0 0 0 0 0 0 0 0 0 0 0 0 0 0 0 0 0 0 0 0 0 1 1 1 1 1 1 1 1 1 1 1 0.999999 1 1 1 1 1 0.999999 1 1 1 1 1 1 0.999999 1 1 1 1 0.999999 1 1 1 1 1 0.999999 0.999999 1 1.00053 1 1 1.00053 0.999999 1 1.00054 0.999999 1 1 1 1 1 1.00062 1.00019 0.999938 1 1 0.999999 1 1 0.999999 0.999938 1 1.00002 -3.2e-07 0 0 -1.06667e-07 0 0 -1.2e-07 0 0 -1.2e-07 0 0 -6.66667e-08 0 0 -5.00016e-07 0 0 0 0 0 0 0 0 0 0 0 0 0 0 0 0 0 0 0 0 0 0 0 0 0 0 0 0 0 0 0 0 0 0 0 0 0 0 0.000163655 1.07844e-06 -5.00016e-07 7.32014e-05 1.6e-07 -4e-08 5.45034e-05 1.6e-07 -4e-08 -5.00016e-07 0 0 -4e-08 0 0 -4e-08 0 0 5.45034e-05 1.6e-07 -4e-08 5.14997e-07 0 0 -9.82686e-07 0 0 -4e-08 0 0 0 0 0 0 0 0 0.000212584 1.66013e-06 -9.82686e-07 7.35164e-05 1.6e-07 -4e-08 5.43484e-05 1.6e-07 -4e-08 5.43484e-05 1.6e-07 -4e-08 5.81664e-07 0 0 -3.01666e-07 0 0 0 0 -2.84444e-07 0 0 0 0 0 0 -3.01666e-07 0 0 0 0 0 0 0 0 0 0 0 0 0 0 0 0 0 -9.82686e-07 0 0 -4e-08 0 0 -4e-08 0 0 0 0 0 0 0 0 0 0 0 -4e-08 0 0 0 0 0 0 0 0 0 0 0 0 0 0 0 0 0 0 0 0 0 0 0 0 0 0 0 0 0 0 0 0 0 0 0 0 0 0 0 0 0 0 0 0 0 0 0 0 0 0 0 0 0 0 0 0 0 0 0 0 0 0 0 0 0 0 0 0 0 0 0 0 0 0 0 0 0 0 0 0 0 0 0 0 0 0 0 0 0 0 0 0 0 0 0 0 0 0 0 0 0 0 0 0 0 0 0 0 0 0 0 0 0 0 0 0 0 0 0 0 0 0 0 0 0 0 0 0 0 0 0 0 0 0 0 0 0 0 0 0 0 0 0 0 0 0 0 0 0 0 0 0 0 0 0 0 0 0 0 0 0 0 0 0 0 0 0 0 0 0 0 0 0 0 0 0 0 0 0 0 0 0 0 0 0 0 0 0 0 0 0 0 0 0 0 0 0 0 0 0 0 0 0 0 0 0 0 0 0 0 0 0 0 0 0 0 0 0 0 0 0 0 0 0 0 0 0 0 0 0 0 0 0 0 0 0 0 0 0 0 0 0 0 0 0 0 0 0 0 0 0 0 0 0 0 0 0 0 0 0 0 0 0 0 0 0 0 0 0 0 0 0 0 0 0 0 0 0 0 0 0 0 0 0 0 0 0 0 0 0 0 0 0 0 0 0 0 0 0 0 0 0 0 0 0 0 0 0 0 0 0 0 0 0 0 0 0 0 0 0 0 0 0 0 0 0 0 0 0 0 0 0 0 0 0 0 0 0 0 0 0 0 0 0 0 0 0 0 0 0 0 0 0 0 0 0 0 0 0 0 0 0 0 0 0 0 0 0 0 0 0 0 0 0 0 0 0 0 0 0 0 0 0 0 0 0 0 0 0 0 0 0 0 0 0 0 0 0 0 0 0 0 0 0 0 0 0 0 0 0 0 0 0 0 0 0 0 0 0 0 0 0 0 0 0 0 0 0 0 0 0 0 0 0 0 0 0 0 0 0 0 0 0 0 0 0 0 0 0 0 0 0 0 0 0 0 0 0 0 0 0 0 0 0 0 0 0 0 0 0 0 0 0 0 0 0 0 0 0 0 0 0 0 0 0 0 0 0 0 0 0 0 0 0 0 0 0 0 0 0 0 0 0 0 0 0 0 0 0 0 0 0 0 0 0 0 0 0 0 0 0 0 0 0 0 0 0 0 0 0 0 0 0 0 0 0 0 0 0 0 0 0 0 0 0 0 0 0 0 0 0 0 0 0 0 0 0 0 0 0 0 0 0 0 0 0 0 0 0 0 0 0 0 0 0 0 0 0 0 0 0 0 0 0 0 0 0 0 0 0 0 0 0 0 0 0 0 0 0 0 0 0 0 0 0 0 0 0 0 0 0 0 0 0 0 0 0 0 0 0 0 0 -6.38341e-07 0 0 -4e-08 0 0 0 -6.38341e-07 1.07842e-06 0.00017485 -4e-08 1.6e-07 4.79088e-05 0 0 -8.18314e-06 0 0 0 0 0 0 0 0 0 0 0 -8.18314e-06 0 0 0 0 0 -1.56e-07 0 0 0 0 0 0 0 0 0 0 0 -1.56e-07 0 0 0 0 0 0 0 0 0 0 0 0 0 0 0 0 0 0 0 0 0 0 0 0 -1.56e-07 3.14997e-07 4.83764e-05 0 0 5.14997e-07 0 0 -8.26683e-07 0 0 -8.26683e-07 0 0 0 0 0 0 -8.26683e-07 1.3451e-06 0.000140316 0 0 1.07844e-06 0 0 -6.38354e-07 0.999959 1 1 1.00015 1 1 0.995396 0.999965 1.00002 1 1 1 1 1 1 1.00002 1 1 1.00002 1 1 1 1 1 1.00062 1.00019 0.999937 1 1 1 1 1 1 1 1 1 1 1 1 1 1 1 1 1 1 1 1 1 1 1 1 0.999937 0.999999 0.999999 1 1 1 1 1 1 0.999999 0.999999 0.999999 0 0 0 0 0 0 0 0 0 0 0 -6.38354e-07 0 0 0 0 0 0 0 0 0 0 0 0 0 0 0 0 0 0 0 0 0 0 0 0 0 0 0 0 0 0 0 0 0 0 0 0 0 0 0 0 0 0 0 0 0 0 0 0 0 0 0 0 0 0 0 0 0 0 0 0 7.19839e-05 7.2438e-05 7.24379e-05 3.1503e-07 1.6e-07 1.6e-07 -1.95003e-07 -4e-08 -4e-08 7.24379e-05 7.24379e-05 7.24379e-05 1.6e-07 1.6e-07 1.6e-07 -4e-08 -4e-08 -4e-0